 vasp.5.4.4.18Apr17-6-g9f103f2a35 (build Jun 05 2020 11:42:50) complex          
  
 executed on             LinuxIFC date 2022.02.03  14:31:21
 running on   16 total cores
 distrk:  each k-point on   16 cores,    1 groups
 distr:  one band on NCORES_PER_BAND=   4 cores,    4 groups


--------------------------------------------------------------------------------------------------------


 INCAR:
 POTCAR:    PAW_PBE B 06Sep2000                   
 POTCAR:    PAW_PBE O 08Apr2002                   
 POTCAR:    PAW_PBE B 06Sep2000                   
 POTCAR:    PAW_PBE O 08Apr2002                   
 POTCAR:    PAW_PBE B 06Sep2000                   
 POTCAR:    PAW_PBE O 08Apr2002                   
 POTCAR:    PAW_PBE B 06Sep2000                   
 POTCAR:    PAW_PBE O 08Apr2002                   
 POTCAR:    PAW_PBE B 06Sep2000                   
 POTCAR:    PAW_PBE O 08Apr2002                   
 POTCAR:    PAW_PBE B 06Sep2000                   
   VRHFIN =B: s2p1                                                              
   LEXCH  = PE                                                                  
   EATOM  =    71.1703 eV,    5.2309 Ry                                         
                                                                                
   TITEL  = PAW_PBE B 06Sep2000                                                 
   LULTRA =        F    use ultrasoft PP ?                                      
   IUNSCR =        1    unscreen: 0-lin 1-nonlin 2-no                           
   RPACOR =    1.200    partial core radius                                     
   POMASS =   10.811; ZVAL   =    3.000    mass and valenz                      
   RCORE  =    1.700    outmost cutoff radius                                   
   RWIGS  =    1.710; RWIGS  =    0.905    wigner-seitz radius (au A)           
   ENMAX  =  318.614; ENMIN  =  238.960 eV                                      
   ICORE  =        2    local potential                                         
   LCOR   =        T    correct aug charges                                     
   LPAW   =        T    paw PP                                                  
   EAUG   =  535.514                                                            
   DEXC   =    0.000                                                            
   RMAX   =    1.732    core radius for proj-oper                               
   RAUG   =    1.300    factor for augmentation sphere                          
   RDEP   =    1.757    radius for radial grids                                 
   RDEPT  =    1.436    core radius for aug-charge                              
                                                                                
   Atomic configuration                                                         
    4 entries                                                                   
     n  l   j            E        occ.                                          
     1  0  0.50      -180.5896   2.0000                                         
     2  0  0.50        -9.4431   2.0000                                         
     2  1  0.50        -3.6068   1.0000                                         
     3  2  1.50        -4.0817   0.0000                                         
   Description                                                                  
     l       E           TYP  RCUT    TYP  RCUT                                 
     0     -9.4430752     23  1.500                                             
     0      0.8675899     23  1.500                                             
     1     -3.6067955     23  1.700                                             
     1      6.1086146     23  1.700                                             
     2     -4.0817478      7  1.700                                             
  local pseudopotential read in
  partial core-charges read in
  partial kinetic energy density read in
  atomic valenz-charges read in
  non local Contribution for L=           0  read in
    real space projection operators read in
  non local Contribution for L=           0  read in
    real space projection operators read in
  non local Contribution for L=           1  read in
    real space projection operators read in
  non local Contribution for L=           1  read in
    real space projection operators read in
    PAW grid and wavefunctions read in
 
   number of l-projection  operators is LMAX  =           4
   number of lm-projection operators is LMMAX =           8
 
 POTCAR:    PAW_PBE O 08Apr2002                   
   VRHFIN =O: s2p4                                                              
   LEXCH  = PE                                                                  
   EATOM  =   432.3788 eV,   31.7789 Ry                                         
                                                                                
   TITEL  = PAW_PBE O 08Apr2002                                                 
   LULTRA =        F    use ultrasoft PP ?                                      
   IUNSCR =        1    unscreen: 0-lin 1-nonlin 2-no                           
   RPACOR =    1.200    partial core radius                                     
   POMASS =   16.000; ZVAL   =    6.000    mass and valenz                      
   RCORE  =    1.520    outmost cutoff radius                                   
   RWIGS  =    1.550; RWIGS  =    0.820    wigner-seitz radius (au A)           
   ENMAX  =  400.000; ENMIN  =  300.000 eV                                      
   ICORE  =        2    local potential                                         
   LCOR   =        T    correct aug charges                                     
   LPAW   =        T    paw PP                                                  
   EAUG   =  605.392                                                            
   DEXC   =    0.000                                                            
   RMAX   =    1.553    core radius for proj-oper                               
   RAUG   =    1.300    factor for augmentation sphere                          
   RDEP   =    1.550    radius for radial grids                                 
   RDEPT  =    1.329    core radius for aug-charge                              
                                                                                
   Atomic configuration                                                         
    4 entries                                                                   
     n  l   j            E        occ.                                          
     1  0  0.50      -514.6923   2.0000                                         
     2  0  0.50       -23.9615   2.0000                                         
     2  1  0.50        -9.0305   4.0000                                         
     3  2  1.50        -9.5241   0.0000                                         
   Description                                                                  
     l       E           TYP  RCUT    TYP  RCUT                                 
     0    -23.9615318     23  1.200                                             
     0     -9.5240782     23  1.200                                             
     1     -9.0304911     23  1.520                                             
     1      8.1634956     23  1.520                                             
     2     -9.5240782      7  1.500                                             
  local pseudopotential read in
  partial core-charges read in
  partial kinetic energy density read in
  kinetic energy density of atom read in
  atomic valenz-charges read in
  non local Contribution for L=           0  read in
    real space projection operators read in
  non local Contribution for L=           0  read in
    real space projection operators read in
  non local Contribution for L=           1  read in
    real space projection operators read in
  non local Contribution for L=           1  read in
    real space projection operators read in
    PAW grid and wavefunctions read in
 
   number of l-projection  operators is LMAX  =           4
   number of lm-projection operators is LMMAX =           8
 
 POTCAR:    PAW_PBE B 06Sep2000                   
   VRHFIN =B: s2p1                                                              
   LEXCH  = PE                                                                  
   EATOM  =    71.1703 eV,    5.2309 Ry                                         
                                                                                
   TITEL  = PAW_PBE B 06Sep2000                                                 
   LULTRA =        F    use ultrasoft PP ?                                      
   IUNSCR =        1    unscreen: 0-lin 1-nonlin 2-no                           
   RPACOR =    1.200    partial core radius                                     
   POMASS =   10.811; ZVAL   =    3.000    mass and valenz                      
   RCORE  =    1.700    outmost cutoff radius                                   
   RWIGS  =    1.710; RWIGS  =    0.905    wigner-seitz radius (au A)           
   ENMAX  =  318.614; ENMIN  =  238.960 eV                                      
   ICORE  =        2    local potential                                         
   LCOR   =        T    correct aug charges                                     
   LPAW   =        T    paw PP                                                  
   EAUG   =  535.514                                                            
   DEXC   =    0.000                                                            
   RMAX   =    1.732    core radius for proj-oper                               
   RAUG   =    1.300    factor for augmentation sphere                          
   RDEP   =    1.757    radius for radial grids                                 
   RDEPT  =    1.436    core radius for aug-charge                              
                                                                                
   Atomic configuration                                                         
    4 entries                                                                   
     n  l   j            E        occ.                                          
     1  0  0.50      -180.5896   2.0000                                         
     2  0  0.50        -9.4431   2.0000                                         
     2  1  0.50        -3.6068   1.0000                                         
     3  2  1.50        -4.0817   0.0000                                         
   Description                                                                  
     l       E           TYP  RCUT    TYP  RCUT                                 
     0     -9.4430752     23  1.500                                             
     0      0.8675899     23  1.500                                             
     1     -3.6067955     23  1.700                                             
     1      6.1086146     23  1.700                                             
     2     -4.0817478      7  1.700                                             
  local pseudopotential read in
  partial core-charges read in
  partial kinetic energy density read in
  atomic valenz-charges read in
  non local Contribution for L=           0  read in
    real space projection operators read in
  non local Contribution for L=           0  read in
    real space projection operators read in
  non local Contribution for L=           1  read in
    real space projection operators read in
  non local Contribution for L=           1  read in
    real space projection operators read in
    PAW grid and wavefunctions read in
 
   number of l-projection  operators is LMAX  =           4
   number of lm-projection operators is LMMAX =           8
 
 POTCAR:    PAW_PBE O 08Apr2002                   
   VRHFIN =O: s2p4                                                              
   LEXCH  = PE                                                                  
   EATOM  =   432.3788 eV,   31.7789 Ry                                         
                                                                                
   TITEL  = PAW_PBE O 08Apr2002                                                 
   LULTRA =        F    use ultrasoft PP ?                                      
   IUNSCR =        1    unscreen: 0-lin 1-nonlin 2-no                           
   RPACOR =    1.200    partial core radius                                     
   POMASS =   16.000; ZVAL   =    6.000    mass and valenz                      
   RCORE  =    1.520    outmost cutoff radius                                   
   RWIGS  =    1.550; RWIGS  =    0.820    wigner-seitz radius (au A)           
   ENMAX  =  400.000; ENMIN  =  300.000 eV                                      
   ICORE  =        2    local potential                                         
   LCOR   =        T    correct aug charges                                     
   LPAW   =        T    paw PP                                                  
   EAUG   =  605.392                                                            
   DEXC   =    0.000                                                            
   RMAX   =    1.553    core radius for proj-oper                               
   RAUG   =    1.300    factor for augmentation sphere                          
   RDEP   =    1.550    radius for radial grids                                 
   RDEPT  =    1.329    core radius for aug-charge                              
                                                                                
   Atomic configuration                                                         
    4 entries                                                                   
     n  l   j            E        occ.                                          
     1  0  0.50      -514.6923   2.0000                                         
     2  0  0.50       -23.9615   2.0000                                         
     2  1  0.50        -9.0305   4.0000                                         
     3  2  1.50        -9.5241   0.0000                                         
   Description                                                                  
     l       E           TYP  RCUT    TYP  RCUT                                 
     0    -23.9615318     23  1.200                                             
     0     -9.5240782     23  1.200                                             
     1     -9.0304911     23  1.520                                             
     1      8.1634956     23  1.520                                             
     2     -9.5240782      7  1.500                                             
  local pseudopotential read in
  partial core-charges read in
  partial kinetic energy density read in
  kinetic energy density of atom read in
  atomic valenz-charges read in
  non local Contribution for L=           0  read in
    real space projection operators read in
  non local Contribution for L=           0  read in
    real space projection operators read in
  non local Contribution for L=           1  read in
    real space projection operators read in
  non local Contribution for L=           1  read in
    real space projection operators read in
    PAW grid and wavefunctions read in
 
   number of l-projection  operators is LMAX  =           4
   number of lm-projection operators is LMMAX =           8
 
 POTCAR:    PAW_PBE B 06Sep2000                   
   VRHFIN =B: s2p1                                                              
   LEXCH  = PE                                                                  
   EATOM  =    71.1703 eV,    5.2309 Ry                                         
                                                                                
   TITEL  = PAW_PBE B 06Sep2000                                                 
   LULTRA =        F    use ultrasoft PP ?                                      
   IUNSCR =        1    unscreen: 0-lin 1-nonlin 2-no                           
   RPACOR =    1.200    partial core radius                                     
   POMASS =   10.811; ZVAL   =    3.000    mass and valenz                      
   RCORE  =    1.700    outmost cutoff radius                                   
   RWIGS  =    1.710; RWIGS  =    0.905    wigner-seitz radius (au A)           
   ENMAX  =  318.614; ENMIN  =  238.960 eV                                      
   ICORE  =        2    local potential                                         
   LCOR   =        T    correct aug charges                                     
   LPAW   =        T    paw PP                                                  
   EAUG   =  535.514                                                            
   DEXC   =    0.000                                                            
   RMAX   =    1.732    core radius for proj-oper                               
   RAUG   =    1.300    factor for augmentation sphere                          
   RDEP   =    1.757    radius for radial grids                                 
   RDEPT  =    1.436    core radius for aug-charge                              
                                                                                
   Atomic configuration                                                         
    4 entries                                                                   
     n  l   j            E        occ.                                          
     1  0  0.50      -180.5896   2.0000                                         
     2  0  0.50        -9.4431   2.0000                                         
     2  1  0.50        -3.6068   1.0000                                         
     3  2  1.50        -4.0817   0.0000                                         
   Description                                                                  
     l       E           TYP  RCUT    TYP  RCUT                                 
     0     -9.4430752     23  1.500                                             
     0      0.8675899     23  1.500                                             
     1     -3.6067955     23  1.700                                             
     1      6.1086146     23  1.700                                             
     2     -4.0817478      7  1.700                                             
  local pseudopotential read in
  partial core-charges read in
  partial kinetic energy density read in
  atomic valenz-charges read in
  non local Contribution for L=           0  read in
    real space projection operators read in
  non local Contribution for L=           0  read in
    real space projection operators read in
  non local Contribution for L=           1  read in
    real space projection operators read in
  non local Contribution for L=           1  read in
    real space projection operators read in
    PAW grid and wavefunctions read in
 
   number of l-projection  operators is LMAX  =           4
   number of lm-projection operators is LMMAX =           8
 
 POTCAR:    PAW_PBE O 08Apr2002                   
   VRHFIN =O: s2p4                                                              
   LEXCH  = PE                                                                  
   EATOM  =   432.3788 eV,   31.7789 Ry                                         
                                                                                
   TITEL  = PAW_PBE O 08Apr2002                                                 
   LULTRA =        F    use ultrasoft PP ?                                      
   IUNSCR =        1    unscreen: 0-lin 1-nonlin 2-no                           
   RPACOR =    1.200    partial core radius                                     
   POMASS =   16.000; ZVAL   =    6.000    mass and valenz                      
   RCORE  =    1.520    outmost cutoff radius                                   
   RWIGS  =    1.550; RWIGS  =    0.820    wigner-seitz radius (au A)           
   ENMAX  =  400.000; ENMIN  =  300.000 eV                                      
   ICORE  =        2    local potential                                         
   LCOR   =        T    correct aug charges                                     
   LPAW   =        T    paw PP                                                  
   EAUG   =  605.392                                                            
   DEXC   =    0.000                                                            
   RMAX   =    1.553    core radius for proj-oper                               
   RAUG   =    1.300    factor for augmentation sphere                          
   RDEP   =    1.550    radius for radial grids                                 
   RDEPT  =    1.329    core radius for aug-charge                              
                                                                                
   Atomic configuration                                                         
    4 entries                                                                   
     n  l   j            E        occ.                                          
     1  0  0.50      -514.6923   2.0000                                         
     2  0  0.50       -23.9615   2.0000                                         
     2  1  0.50        -9.0305   4.0000                                         
     3  2  1.50        -9.5241   0.0000                                         
   Description                                                                  
     l       E           TYP  RCUT    TYP  RCUT                                 
     0    -23.9615318     23  1.200                                             
     0     -9.5240782     23  1.200                                             
     1     -9.0304911     23  1.520                                             
     1      8.1634956     23  1.520                                             
     2     -9.5240782      7  1.500                                             
  local pseudopotential read in
  partial core-charges read in
  partial kinetic energy density read in
  kinetic energy density of atom read in
  atomic valenz-charges read in
  non local Contribution for L=           0  read in
    real space projection operators read in
  non local Contribution for L=           0  read in
    real space projection operators read in
  non local Contribution for L=           1  read in
    real space projection operators read in
  non local Contribution for L=           1  read in
    real space projection operators read in
    PAW grid and wavefunctions read in
 
   number of l-projection  operators is LMAX  =           4
   number of lm-projection operators is LMMAX =           8
 
 POTCAR:    PAW_PBE B 06Sep2000                   
   VRHFIN =B: s2p1                                                              
   LEXCH  = PE                                                                  
   EATOM  =    71.1703 eV,    5.2309 Ry                                         
                                                                                
   TITEL  = PAW_PBE B 06Sep2000                                                 
   LULTRA =        F    use ultrasoft PP ?                                      
   IUNSCR =        1    unscreen: 0-lin 1-nonlin 2-no                           
   RPACOR =    1.200    partial core radius                                     
   POMASS =   10.811; ZVAL   =    3.000    mass and valenz                      
   RCORE  =    1.700    outmost cutoff radius                                   
   RWIGS  =    1.710; RWIGS  =    0.905    wigner-seitz radius (au A)           
   ENMAX  =  318.614; ENMIN  =  238.960 eV                                      
   ICORE  =        2    local potential                                         
   LCOR   =        T    correct aug charges                                     
   LPAW   =        T    paw PP                                                  
   EAUG   =  535.514                                                            
   DEXC   =    0.000                                                            
   RMAX   =    1.732    core radius for proj-oper                               
   RAUG   =    1.300    factor for augmentation sphere                          
   RDEP   =    1.757    radius for radial grids                                 
   RDEPT  =    1.436    core radius for aug-charge                              
                                                                                
   Atomic configuration                                                         
    4 entries                                                                   
     n  l   j            E        occ.                                          
     1  0  0.50      -180.5896   2.0000                                         
     2  0  0.50        -9.4431   2.0000                                         
     2  1  0.50        -3.6068   1.0000                                         
     3  2  1.50        -4.0817   0.0000                                         
   Description                                                                  
     l       E           TYP  RCUT    TYP  RCUT                                 
     0     -9.4430752     23  1.500                                             
     0      0.8675899     23  1.500                                             
     1     -3.6067955     23  1.700                                             
     1      6.1086146     23  1.700                                             
     2     -4.0817478      7  1.700                                             
  local pseudopotential read in
  partial core-charges read in
  partial kinetic energy density read in
  atomic valenz-charges read in
  non local Contribution for L=           0  read in
    real space projection operators read in
  non local Contribution for L=           0  read in
    real space projection operators read in
  non local Contribution for L=           1  read in
    real space projection operators read in
  non local Contribution for L=           1  read in
    real space projection operators read in
    PAW grid and wavefunctions read in
 
   number of l-projection  operators is LMAX  =           4
   number of lm-projection operators is LMMAX =           8
 
 POTCAR:    PAW_PBE O 08Apr2002                   
   VRHFIN =O: s2p4                                                              
   LEXCH  = PE                                                                  
   EATOM  =   432.3788 eV,   31.7789 Ry                                         
                                                                                
   TITEL  = PAW_PBE O 08Apr2002                                                 
   LULTRA =        F    use ultrasoft PP ?                                      
   IUNSCR =        1    unscreen: 0-lin 1-nonlin 2-no                           
   RPACOR =    1.200    partial core radius                                     
   POMASS =   16.000; ZVAL   =    6.000    mass and valenz                      
   RCORE  =    1.520    outmost cutoff radius                                   
   RWIGS  =    1.550; RWIGS  =    0.820    wigner-seitz radius (au A)           
   ENMAX  =  400.000; ENMIN  =  300.000 eV                                      
   ICORE  =        2    local potential                                         
   LCOR   =        T    correct aug charges                                     
   LPAW   =        T    paw PP                                                  
   EAUG   =  605.392                                                            
   DEXC   =    0.000                                                            
   RMAX   =    1.553    core radius for proj-oper                               
   RAUG   =    1.300    factor for augmentation sphere                          
   RDEP   =    1.550    radius for radial grids                                 
   RDEPT  =    1.329    core radius for aug-charge                              
                                                                                
   Atomic configuration                                                         
    4 entries                                                                   
     n  l   j            E        occ.                                          
     1  0  0.50      -514.6923   2.0000                                         
     2  0  0.50       -23.9615   2.0000                                         
     2  1  0.50        -9.0305   4.0000                                         
     3  2  1.50        -9.5241   0.0000                                         
   Description                                                                  
     l       E           TYP  RCUT    TYP  RCUT                                 
     0    -23.9615318     23  1.200                                             
     0     -9.5240782     23  1.200                                             
     1     -9.0304911     23  1.520                                             
     1      8.1634956     23  1.520                                             
     2     -9.5240782      7  1.500                                             
  local pseudopotential read in
  partial core-charges read in
  partial kinetic energy density read in
  kinetic energy density of atom read in
  atomic valenz-charges read in
  non local Contribution for L=           0  read in
    real space projection operators read in
  non local Contribution for L=           0  read in
    real space projection operators read in
  non local Contribution for L=           1  read in
    real space projection operators read in
  non local Contribution for L=           1  read in
    real space projection operators read in
    PAW grid and wavefunctions read in
 
   number of l-projection  operators is LMAX  =           4
   number of lm-projection operators is LMMAX =           8
 
 POTCAR:    PAW_PBE B 06Sep2000                   
   VRHFIN =B: s2p1                                                              
   LEXCH  = PE                                                                  
   EATOM  =    71.1703 eV,    5.2309 Ry                                         
                                                                                
   TITEL  = PAW_PBE B 06Sep2000                                                 
   LULTRA =        F    use ultrasoft PP ?                                      
   IUNSCR =        1    unscreen: 0-lin 1-nonlin 2-no                           
   RPACOR =    1.200    partial core radius                                     
   POMASS =   10.811; ZVAL   =    3.000    mass and valenz                      
   RCORE  =    1.700    outmost cutoff radius                                   
   RWIGS  =    1.710; RWIGS  =    0.905    wigner-seitz radius (au A)           
   ENMAX  =  318.614; ENMIN  =  238.960 eV                                      
   ICORE  =        2    local potential                                         
   LCOR   =        T    correct aug charges                                     
   LPAW   =        T    paw PP                                                  
   EAUG   =  535.514                                                            
   DEXC   =    0.000                                                            
   RMAX   =    1.732    core radius for proj-oper                               
   RAUG   =    1.300    factor for augmentation sphere                          
   RDEP   =    1.757    radius for radial grids                                 
   RDEPT  =    1.436    core radius for aug-charge                              
                                                                                
   Atomic configuration                                                         
    4 entries                                                                   
     n  l   j            E        occ.                                          
     1  0  0.50      -180.5896   2.0000                                         
     2  0  0.50        -9.4431   2.0000                                         
     2  1  0.50        -3.6068   1.0000                                         
     3  2  1.50        -4.0817   0.0000                                         
   Description                                                                  
     l       E           TYP  RCUT    TYP  RCUT                                 
     0     -9.4430752     23  1.500                                             
     0      0.8675899     23  1.500                                             
     1     -3.6067955     23  1.700                                             
     1      6.1086146     23  1.700                                             
     2     -4.0817478      7  1.700                                             
  local pseudopotential read in
  partial core-charges read in
  partial kinetic energy density read in
  atomic valenz-charges read in
  non local Contribution for L=           0  read in
    real space projection operators read in
  non local Contribution for L=           0  read in
    real space projection operators read in
  non local Contribution for L=           1  read in
    real space projection operators read in
  non local Contribution for L=           1  read in
    real space projection operators read in
    PAW grid and wavefunctions read in
 
   number of l-projection  operators is LMAX  =           4
   number of lm-projection operators is LMMAX =           8
 
 POTCAR:    PAW_PBE O 08Apr2002                   
   VRHFIN =O: s2p4                                                              
   LEXCH  = PE                                                                  
   EATOM  =   432.3788 eV,   31.7789 Ry                                         
                                                                                
   TITEL  = PAW_PBE O 08Apr2002                                                 
   LULTRA =        F    use ultrasoft PP ?                                      
   IUNSCR =        1    unscreen: 0-lin 1-nonlin 2-no                           
   RPACOR =    1.200    partial core radius                                     
   POMASS =   16.000; ZVAL   =    6.000    mass and valenz                      
   RCORE  =    1.520    outmost cutoff radius                                   
   RWIGS  =    1.550; RWIGS  =    0.820    wigner-seitz radius (au A)           
   ENMAX  =  400.000; ENMIN  =  300.000 eV                                      
   ICORE  =        2    local potential                                         
   LCOR   =        T    correct aug charges                                     
   LPAW   =        T    paw PP                                                  
   EAUG   =  605.392                                                            
   DEXC   =    0.000                                                            
   RMAX   =    1.553    core radius for proj-oper                               
   RAUG   =    1.300    factor for augmentation sphere                          
   RDEP   =    1.550    radius for radial grids                                 
   RDEPT  =    1.329    core radius for aug-charge                              
                                                                                
   Atomic configuration                                                         
    4 entries                                                                   
     n  l   j            E        occ.                                          
     1  0  0.50      -514.6923   2.0000                                         
     2  0  0.50       -23.9615   2.0000                                         
     2  1  0.50        -9.0305   4.0000                                         
     3  2  1.50        -9.5241   0.0000                                         
   Description                                                                  
     l       E           TYP  RCUT    TYP  RCUT                                 
     0    -23.9615318     23  1.200                                             
     0     -9.5240782     23  1.200                                             
     1     -9.0304911     23  1.520                                             
     1      8.1634956     23  1.520                                             
     2     -9.5240782      7  1.500                                             
  local pseudopotential read in
  partial core-charges read in
  partial kinetic energy density read in
  kinetic energy density of atom read in
  atomic valenz-charges read in
  non local Contribution for L=           0  read in
    real space projection operators read in
  non local Contribution for L=           0  read in
    real space projection operators read in
  non local Contribution for L=           1  read in
    real space projection operators read in
  non local Contribution for L=           1  read in
    real space projection operators read in
    PAW grid and wavefunctions read in
 
   number of l-projection  operators is LMAX  =           4
   number of lm-projection operators is LMMAX =           8
 
  PAW_PBE B 06Sep2000                   :
 energy of atom  1       EATOM=  -71.1703
 kinetic energy error for atom=    0.0020 (will be added to EATOM!!)
  PAW_PBE O 08Apr2002                   :
 energy of atom  2       EATOM= -432.3788
 kinetic energy error for atom=    0.1156 (will be added to EATOM!!)
  PAW_PBE B 06Sep2000                   :
 energy of atom  3       EATOM=  -71.1703
 kinetic energy error for atom=    0.0020 (will be added to EATOM!!)
  PAW_PBE O 08Apr2002                   :
 energy of atom  4       EATOM= -432.3788
 kinetic energy error for atom=    0.1156 (will be added to EATOM!!)
  PAW_PBE B 06Sep2000                   :
 energy of atom  5       EATOM=  -71.1703
 kinetic energy error for atom=    0.0020 (will be added to EATOM!!)
  PAW_PBE O 08Apr2002                   :
 energy of atom  6       EATOM= -432.3788
 kinetic energy error for atom=    0.1156 (will be added to EATOM!!)
  PAW_PBE B 06Sep2000                   :
 energy of atom  7       EATOM=  -71.1703
 kinetic energy error for atom=    0.0020 (will be added to EATOM!!)
  PAW_PBE O 08Apr2002                   :
 energy of atom  8       EATOM= -432.3788
 kinetic energy error for atom=    0.1156 (will be added to EATOM!!)
  PAW_PBE B 06Sep2000                   :
 energy of atom  9       EATOM=  -71.1703
 kinetic energy error for atom=    0.0020 (will be added to EATOM!!)
  PAW_PBE O 08Apr2002                   :
 energy of atom 10       EATOM= -432.3788
 kinetic energy error for atom=    0.1156 (will be added to EATOM!!)
 
 
 POSCAR: B8 O6                                   
  positions in direct lattice
  velocities in cartesian coordinates
 exchange correlation table for  LEXCH =        8
   RHO(1)=    0.500       N(1)  =     2000
   RHO(2)=  100.500       N(2)  =     4000
 


--------------------------------------------------------------------------------------------------------


 ion  position               nearest neighbor table
   1  1.000  0.904  0.839-   4 1.30   2 1.35  14 1.46
   2  0.728  0.962  0.825-   1 1.35  12 1.38
   3  0.168  0.556  0.506-  10 1.33  14 1.50   5 1.71
   4  0.201  0.948  0.032-   1 1.30  11 1.40
   5  0.336  0.372  0.591-   7 1.40   3 1.71   6 1.79   9 2.08
   6  0.195  0.016  0.516-  14 1.47   9 1.77   5 1.79  11 1.88
   7  0.640  0.401  0.537-   5 1.40   9 1.49
   8  0.050  0.564  0.131-  13 1.37  10 1.38  11 1.64
   9  0.590  0.108  0.465-   7 1.49  11 1.64  12 1.71   6 1.77   5 2.08
  10  0.132  0.443  0.262-   3 1.33   8 1.38
  11  0.296  0.877  0.207-   4 1.40   8 1.64   9 1.64   6 1.88
  12  0.692  0.146  0.753-  13 1.37   2 1.38   9 1.71
  13  0.763  0.412  0.941-  12 1.37   8 1.37
  14  0.103  0.819  0.608-   1 1.46   6 1.47   3 1.50
 
  LATTYP: Found a triclinic cell.
 ALAT       =    12.8260659206
 B/A-ratio  =     0.6475198108
 C/A-ratio  =     0.4858817341
 COS(alpha) =     0.0109955670
 COS(beta)  =     0.3775664644
 COS(gamma) =     0.9085816773
  
  Lattice vectors:
  
 A1 = (   8.6500128306,  -8.0520581611,  -4.9849377528)
 A2 = (   6.1943171792,  -5.5261467743,   0.2595194967)
 A3 = (  -1.9627402695,  -2.5535905087,  -5.3351702227)


Analysis of symmetry for initial positions (statically):
=====================================================================
 Subroutine PRICEL returns:
 Original cell was already a primitive cell.
 

 Routine SETGRP: Setting up the symmetry group for a 
 triclinic supercell.


 Subroutine GETGRP returns: Found  1 space group operations
 (whereof  1 operations were pure point group operations)
 out of a pool of  2 trial point group operations.


The static configuration has the point symmetry C_1 .


Analysis of symmetry for dynamics (positions and initial velocities):
=====================================================================
 Subroutine PRICEL returns:
 Original cell was already a primitive cell.
 

 Routine SETGRP: Setting up the symmetry group for a 
 triclinic supercell.


 Subroutine GETGRP returns: Found  1 space group operations
 (whereof  1 operations were pure point group operations)
 out of a pool of  2 trial point group operations.


The dynamic configuration has the point symmetry C_1 .


 Subroutine INISYM returns: Found  1 space group operations
 (whereof  1 operations are pure point group operations),
 and found     1 'primitive' translations

 
 
 KPOINTS: Automatic mesh                          

Automatic generation of k-mesh.
 generate k-points for:    7    6    6
Space group operators:
 irot       det(A)        alpha          n_x          n_y          n_z        tau_x        tau_y        tau_z
    1     1.000000     0.000000     1.000000     0.000000     0.000000     0.000000     0.000000     0.000000
 
 Subroutine IBZKPT returns following result:
 ===========================================
 
 Found    128 irreducible k-points:
 
 Following reciprocal coordinates:
            Coordinates               Weight
  0.000000  0.000000  0.000000      1.000000
  0.142857  0.000000  0.000000      2.000000
  0.285714  0.000000  0.000000      2.000000
  0.428571  0.000000  0.000000      2.000000
  0.000000  0.166667  0.000000      2.000000
  0.142857  0.166667  0.000000      2.000000
  0.285714  0.166667  0.000000      2.000000
  0.428571  0.166667  0.000000      2.000000
 -0.428571  0.166667  0.000000      2.000000
 -0.285714  0.166667  0.000000      2.000000
 -0.142857  0.166667  0.000000      2.000000
  0.000000  0.333333  0.000000      2.000000
  0.142857  0.333333  0.000000      2.000000
  0.285714  0.333333  0.000000      2.000000
  0.428571  0.333333  0.000000      2.000000
 -0.428571  0.333333  0.000000      2.000000
 -0.285714  0.333333  0.000000      2.000000
 -0.142857  0.333333  0.000000      2.000000
  0.000000  0.500000  0.000000      1.000000
  0.142857  0.500000  0.000000      2.000000
  0.285714  0.500000  0.000000      2.000000
  0.428571  0.500000  0.000000      2.000000
  0.000000  0.000000  0.166667      2.000000
  0.142857  0.000000  0.166667      2.000000
  0.285714  0.000000  0.166667      2.000000
  0.428571  0.000000  0.166667      2.000000
 -0.428571  0.000000  0.166667      2.000000
 -0.285714  0.000000  0.166667      2.000000
 -0.142857  0.000000  0.166667      2.000000
  0.000000  0.166667  0.166667      2.000000
  0.142857  0.166667  0.166667      2.000000
  0.285714  0.166667  0.166667      2.000000
  0.428571  0.166667  0.166667      2.000000
 -0.428571  0.166667  0.166667      2.000000
 -0.285714  0.166667  0.166667      2.000000
 -0.142857  0.166667  0.166667      2.000000
  0.000000  0.333333  0.166667      2.000000
  0.142857  0.333333  0.166667      2.000000
  0.285714  0.333333  0.166667      2.000000
  0.428571  0.333333  0.166667      2.000000
 -0.428571  0.333333  0.166667      2.000000
 -0.285714  0.333333  0.166667      2.000000
 -0.142857  0.333333  0.166667      2.000000
  0.000000  0.500000  0.166667      2.000000
  0.142857  0.500000  0.166667      2.000000
  0.285714  0.500000  0.166667      2.000000
  0.428571  0.500000  0.166667      2.000000
 -0.428571  0.500000  0.166667      2.000000
 -0.285714  0.500000  0.166667      2.000000
 -0.142857  0.500000  0.166667      2.000000
  0.000000 -0.333333  0.166667      2.000000
  0.142857 -0.333333  0.166667      2.000000
  0.285714 -0.333333  0.166667      2.000000
  0.428571 -0.333333  0.166667      2.000000
 -0.428571 -0.333333  0.166667      2.000000
 -0.285714 -0.333333  0.166667      2.000000
 -0.142857 -0.333333  0.166667      2.000000
  0.000000 -0.166667  0.166667      2.000000
  0.142857 -0.166667  0.166667      2.000000
  0.285714 -0.166667  0.166667      2.000000
  0.428571 -0.166667  0.166667      2.000000
 -0.428571 -0.166667  0.166667      2.000000
 -0.285714 -0.166667  0.166667      2.000000
 -0.142857 -0.166667  0.166667      2.000000
  0.000000  0.000000  0.333333      2.000000
  0.142857  0.000000  0.333333      2.000000
  0.285714  0.000000  0.333333      2.000000
  0.428571  0.000000  0.333333      2.000000
 -0.428571  0.000000  0.333333      2.000000
 -0.285714  0.000000  0.333333      2.000000
 -0.142857  0.000000  0.333333      2.000000
  0.000000  0.166667  0.333333      2.000000
  0.142857  0.166667  0.333333      2.000000
  0.285714  0.166667  0.333333      2.000000
  0.428571  0.166667  0.333333      2.000000
 -0.428571  0.166667  0.333333      2.000000
 -0.285714  0.166667  0.333333      2.000000
 -0.142857  0.166667  0.333333      2.000000
  0.000000  0.333333  0.333333      2.000000
  0.142857  0.333333  0.333333      2.000000
  0.285714  0.333333  0.333333      2.000000
  0.428571  0.333333  0.333333      2.000000
 -0.428571  0.333333  0.333333      2.000000
 -0.285714  0.333333  0.333333      2.000000
 -0.142857  0.333333  0.333333      2.000000
  0.000000  0.500000  0.333333      2.000000
  0.142857  0.500000  0.333333      2.000000
  0.285714  0.500000  0.333333      2.000000
  0.428571  0.500000  0.333333      2.000000
 -0.428571  0.500000  0.333333      2.000000
 -0.285714  0.500000  0.333333      2.000000
 -0.142857  0.500000  0.333333      2.000000
  0.000000 -0.333333  0.333333      2.000000
  0.142857 -0.333333  0.333333      2.000000
  0.285714 -0.333333  0.333333      2.000000
  0.428571 -0.333333  0.333333      2.000000
 -0.428571 -0.333333  0.333333      2.000000
 -0.285714 -0.333333  0.333333      2.000000
 -0.142857 -0.333333  0.333333      2.000000
  0.000000 -0.166667  0.333333      2.000000
  0.142857 -0.166667  0.333333      2.000000
  0.285714 -0.166667  0.333333      2.000000
  0.428571 -0.166667  0.333333      2.000000
 -0.428571 -0.166667  0.333333      2.000000
 -0.285714 -0.166667  0.333333      2.000000
 -0.142857 -0.166667  0.333333      2.000000
  0.000000  0.000000  0.500000      1.000000
  0.142857  0.000000  0.500000      2.000000
  0.285714  0.000000  0.500000      2.000000
  0.428571  0.000000  0.500000      2.000000
  0.000000  0.166667  0.500000      2.000000
  0.142857  0.166667  0.500000      2.000000
  0.285714  0.166667  0.500000      2.000000
  0.428571  0.166667  0.500000      2.000000
 -0.428571  0.166667  0.500000      2.000000
 -0.285714  0.166667  0.500000      2.000000
 -0.142857  0.166667  0.500000      2.000000
  0.000000  0.333333  0.500000      2.000000
  0.142857  0.333333  0.500000      2.000000
  0.285714  0.333333  0.500000      2.000000
  0.428571  0.333333  0.500000      2.000000
 -0.428571  0.333333  0.500000      2.000000
 -0.285714  0.333333  0.500000      2.000000
 -0.142857  0.333333  0.500000      2.000000
  0.000000  0.500000  0.500000      1.000000
  0.142857  0.500000  0.500000      2.000000
  0.285714  0.500000  0.500000      2.000000
  0.428571  0.500000  0.500000      2.000000
 
 Following cartesian coordinates:
            Coordinates               Weight
  0.000000  0.000000  0.000000      1.000000
  0.032062  0.010554  0.009930      2.000000
  0.064124  0.021108  0.019860      2.000000
  0.096186  0.031662  0.029789      2.000000
 -0.000537  0.030351  0.016910      2.000000
  0.031525  0.040905  0.026839      2.000000
  0.063587  0.051459  0.036769      2.000000
  0.095649  0.062013  0.046699      2.000000
 -0.096724 -0.001310 -0.012880      2.000000
 -0.064661  0.009244 -0.002950      2.000000
 -0.032599  0.019798  0.006980      2.000000
 -0.001075  0.060703  0.033819      2.000000
  0.030987  0.071257  0.043749      2.000000
  0.063050  0.081811  0.053679      2.000000
  0.095112  0.092365  0.063609      2.000000
 -0.097261  0.029041  0.004030      2.000000
 -0.065199  0.039595  0.013960      2.000000
 -0.033137  0.050149  0.023890      2.000000
 -0.001612  0.091054  0.050729      1.000000
  0.030450  0.101608  0.060659      2.000000
  0.062512  0.112162  0.070589      2.000000
  0.094574  0.122716  0.080518      2.000000
 -0.000644  0.000740  0.031122      2.000000
  0.031418  0.011294  0.041052      2.000000
  0.063481  0.021848  0.050981      2.000000
  0.095543  0.032402  0.060911      2.000000
 -0.096830 -0.030922  0.001332      2.000000
 -0.064768 -0.020368  0.011262      2.000000
 -0.032706 -0.009814  0.021192      2.000000
 -0.001181  0.031092  0.048031      2.000000
  0.030881  0.041646  0.057961      2.000000
  0.062943  0.052199  0.067891      2.000000
  0.095005  0.062753  0.077821      2.000000
 -0.097367 -0.000570  0.018242      2.000000
 -0.065305  0.009984  0.028172      2.000000
 -0.033243  0.020538  0.038102      2.000000
 -0.001718  0.061443  0.064941      2.000000
  0.030344  0.071997  0.074871      2.000000
  0.062406  0.082551  0.084801      2.000000
  0.094468  0.093105  0.094730      2.000000
 -0.097904  0.029781  0.035152      2.000000
 -0.065842  0.040335  0.045081      2.000000
 -0.033780  0.050889  0.055011      2.000000
 -0.002255  0.091795  0.081851      2.000000
  0.029807  0.102349  0.091781      2.000000
  0.061869  0.112902  0.101710      2.000000
  0.093931  0.123456  0.111640      2.000000
 -0.098442  0.060133  0.052061      2.000000
 -0.066380  0.070687  0.061991      2.000000
 -0.034318  0.081241  0.071921      2.000000
  0.000431 -0.059963 -0.002698      2.000000
  0.032493 -0.049409  0.007232      2.000000
  0.064555 -0.038855  0.017162      2.000000
  0.096617 -0.028301  0.027092      2.000000
 -0.095755 -0.091625 -0.032487      2.000000
 -0.063693 -0.081071 -0.022557      2.000000
 -0.031631 -0.070517 -0.012627      2.000000
 -0.000106 -0.029611  0.014212      2.000000
  0.031956 -0.019057  0.024142      2.000000
  0.064018 -0.008504  0.034072      2.000000
  0.096080  0.002050  0.044001      2.000000
 -0.096293 -0.061273 -0.015577      2.000000
 -0.064230 -0.050719 -0.005648      2.000000
 -0.032168 -0.040165  0.004282      2.000000
 -0.001287  0.001480  0.062243      2.000000
  0.030775  0.012034  0.072173      2.000000
  0.062837  0.022588  0.082103      2.000000
  0.094899  0.033142  0.092033      2.000000
 -0.097473 -0.030181  0.032454      2.000000
 -0.065411 -0.019628  0.042384      2.000000
 -0.033349 -0.009074  0.052314      2.000000
 -0.001824  0.031832  0.079153      2.000000
  0.030238  0.042386  0.089083      2.000000
  0.062300  0.052940  0.099013      2.000000
  0.094362  0.063494  0.108943      2.000000
 -0.098011  0.000170  0.049364      2.000000
 -0.065949  0.010724  0.059294      2.000000
 -0.033887  0.021278  0.069223      2.000000
 -0.002362  0.062183  0.096063      2.000000
  0.029700  0.072737  0.105993      2.000000
  0.061762  0.083291  0.115922      2.000000
  0.093824  0.093845  0.125852      2.000000
 -0.098548  0.030522  0.066273      2.000000
 -0.066486  0.041075  0.076203      2.000000
 -0.034424  0.051629  0.086133      2.000000
 -0.002899  0.092535  0.112972      2.000000
  0.029163  0.103089  0.122902      2.000000
  0.061225  0.113643  0.132832      2.000000
  0.093287  0.124197  0.142762      2.000000
 -0.099085  0.060873  0.083183      2.000000
 -0.067023  0.071427  0.093113      2.000000
 -0.034961  0.081981  0.103043      2.000000
 -0.000213 -0.059223  0.028424      2.000000
  0.031850 -0.048669  0.038354      2.000000
  0.063912 -0.038115  0.048284      2.000000
  0.095974 -0.027561  0.058214      2.000000
 -0.096399 -0.090884 -0.001365      2.000000
 -0.064337 -0.080331  0.008565      2.000000
 -0.032275 -0.069777  0.018494      2.000000
 -0.000750 -0.028871  0.045334      2.000000
  0.031312 -0.018317  0.055264      2.000000
  0.063374 -0.007763  0.065193      2.000000
  0.095436  0.002791  0.075123      2.000000
 -0.096936 -0.060533  0.015544      2.000000
 -0.064874 -0.049979  0.025474      2.000000
 -0.032812 -0.039425  0.035404      2.000000
 -0.001931  0.002220  0.093365      1.000000
  0.030131  0.012774  0.103295      2.000000
  0.062193  0.023328  0.113225      2.000000
  0.094255  0.033882  0.123155      2.000000
 -0.002468  0.032572  0.110275      2.000000
  0.029594  0.043126  0.120205      2.000000
  0.061656  0.053680  0.130135      2.000000
  0.093718  0.064234  0.140064      2.000000
 -0.098654  0.000910  0.080486      2.000000
 -0.066592  0.011464  0.090415      2.000000
 -0.034530  0.022018  0.100345      2.000000
 -0.003005  0.062923  0.127185      2.000000
  0.029057  0.073477  0.137114      2.000000
  0.061119  0.084031  0.147044      2.000000
  0.093181  0.094585  0.156974      2.000000
 -0.099192  0.031262  0.097395      2.000000
 -0.067130  0.041816  0.107325      2.000000
 -0.035067  0.052370  0.117255      2.000000
 -0.003543  0.093275  0.144094      1.000000
  0.028519  0.103829  0.154024      2.000000
  0.060582  0.114383  0.163954      2.000000
  0.092644  0.124937  0.173884      2.000000
 


--------------------------------------------------------------------------------------------------------




 Dimension of arrays:
   k-points           NKPTS =    128   k-points in BZ     NKDIM =    128   number of bands    NBANDS=     40
   number of dos      NEDOS =    301   number of ions     NIONS =     14
   non local maximal  LDIM  =      4   non local SUM 2l+1 LMDIM =      8
   total plane-waves  NPLWV =  50400
   max r-space proj   IRMAX =      1   max aug-charges    IRDMAX=   6168
   dimension x,y,z NGX =    30 NGY =   40 NGZ =   42
   dimension x,y,z NGXF=    60 NGYF=   80 NGZF=   84
   support grid    NGXF=    60 NGYF=   80 NGZF=   84
   ions per type =               1   1   1   1   2   1   2   1   2   2

   NGX,Y,Z   is equivalent  to a cutoff of  11.29, 11.40, 11.19 a.u.
   NGXF,Y,Z  is equivalent  to a cutoff of  22.57, 22.80, 22.38 a.u.

 SYSTEM =  unknown system                          
 POSCAR =  B8 O6                                   

 Startparameter for this run:
   NWRITE =      2    write-flag & timer
   PREC   = accura    normal or accurate (medium, high low for compatibility)
   ISTART =      0    job   : 0-new  1-cont  2-samecut
   ICHARG =      2    charge: 1-file 2-atom 10-const
   ISPIN  =      1    spin polarized calculation?
   LNONCOLLINEAR =      F non collinear calculations
   LSORBIT =      F    spin-orbit coupling
   INIWAV =      1    electr: 0-lowe 1-rand  2-diag
   LASPH  =      F    aspherical Exc in radial PAW
   METAGGA=      F    non-selfconsistent MetaGGA calc.

 Electronic Relaxation 1
   ENCUT  =  400.0 eV  29.40 Ry    5.42 a.u.   7.21  9.51 10.18*2*pi/ulx,y,z
   ENINI  =  400.0     initial cutoff
   ENAUG  =  605.4 eV  augmentation charge cutoff
   NELM   =     60;   NELMIN=  2; NELMDL= -5     # of ELM steps 
   EDIFF  = 0.1E-03   stopping-criterion for ELM
   LREAL  =      F    real-space projection
   NLSPLINE    = F    spline interpolate recip. space projectors
   LCOMPAT=      F    compatible to vasp.4.4
   GGA_COMPAT  = T    GGA compatible to vasp.4.4-vasp.4.6
   LMAXPAW     = -100 max onsite density
   LMAXMIX     =    2 max onsite mixed and CHGCAR
   VOSKOWN=      0    Vosko Wilk Nusair interpolation
   ROPT   =    0.00000   0.00000   0.00000   0.00000
   ROPT   =    0.00000   0.00000   0.00000   0.00000
   ROPT   =    0.00000   0.00000
 Ionic relaxation
   EDIFFG = 0.1E-02   stopping-criterion for IOM
   NSW    =     50    number of steps for IOM
   NBLOCK =      1;   KBLOCK =     50    inner block; outer block 
   IBRION =      2    ionic relax: 0-MD 1-quasi-New 2-CG
   NFREE  =      1    steps in history (QN), initial steepest desc. (CG)
   ISIF   =      3    stress and relaxation
   IWAVPR =     11    prediction:  0-non 1-charg 2-wave 3-comb
   ISYM   =      2    0-nonsym 1-usesym 2-fastsym
   LCORR  =      T    Harris-Foulkes like correction to forces

   POTIM  = 0.5000    time-step for ionic-motion
   TEIN   =    0.0    initial temperature
   TEBEG  =    0.0;   TEEND  =   0.0 temperature during run
   SMASS  =  -3.00    Nose mass-parameter (am)
   estimated Nose-frequenzy (Omega)   =  0.10E-29 period in steps =****** mass=  -0.446E-27a.u.
   SCALEE = 1.0000    scale energy and forces
   NPACO  =    256;   APACO  = 16.0  distance and # of slots for P.C.
   PSTRESS=    0.0 pullay stress

  Mass of Ions in am
   POMASS =  10.81 16.00 10.81 16.00 10.81 16.00 10.81 16.00
   POMASS =  10.81 16.00
  Ionic Valenz
   ZVAL   =   3.00  6.00  3.00  6.00  3.00  6.00  3.00  6.00
   ZVAL   =   3.00  6.00
  Atomic Wigner-Seitz radii
   RWIGS  =  -1.00 -1.00 -1.00 -1.00 -1.00 -1.00 -1.00 -1.00
   RWIGS  =  -1.00 -1.00
  virtual crystal weights 
   VCA    =   1.00  1.00  1.00  1.00  1.00  1.00  1.00  1.00
   VCA    =   1.00  1.00
   NELECT =      60.0000    total number of electrons
   NUPDOWN=      -1.0000    fix difference up-down

 DOS related values:
   EMIN   =  10.00;   EMAX   =-10.00  energy-range for DOS
   EFERMI =   0.00
   ISMEAR =     2;   SIGMA  =   0.10  broadening in eV -4-tet -1-fermi 0-gaus

 Electronic relaxation 2 (details)
   IALGO  =     68    algorithm
   LDIAG  =      T    sub-space diagonalisation (order eigenvalues)
   LSUBROT=      F    optimize rotation matrix (better conditioning)
   TURBO    =      0    0=normal 1=particle mesh
   IRESTART =      0    0=no restart 2=restart with 2 vectors
   NREBOOT  =      0    no. of reboots
   NMIN     =      0    reboot dimension
   EREF     =   0.00    reference energy to select bands
   IMIX   =      4    mixing-type and parameters
     AMIX     =   0.40;   BMIX     =  1.00
     AMIX_MAG =   1.60;   BMIX_MAG =  1.00
     AMIN     =   0.10
     WC   =   100.;   INIMIX=   1;  MIXPRE=   1;  MAXMIX= -45

 Intra band minimization:
   WEIMIN = 0.0010     energy-eigenvalue tresh-hold
   EBREAK =  0.63E-06  absolut break condition
   DEPER  =   0.30     relativ break condition  

   TIME   =   0.40     timestep for ELM

  volume/ion in A,a.u.               =       9.41        63.47
  Fermi-wavevector in a.u.,A,eV,Ry     =   1.259758  2.380597 21.592304  1.586990
  Thomas-Fermi vector in A             =   2.393301
 
 Write flags
   LWAVE        =      F    write WAVECAR
   LDOWNSAMPLE  =      F    k-point downsampling of WAVECAR
   LCHARG       =      F    write CHGCAR
   LVTOT        =      F    write LOCPOT, total local potential
   LVHAR        =      F    write LOCPOT, Hartree potential only
   LELF         =      F    write electronic localiz. function (ELF)
   LORBIT       =      0    0 simple, 1 ext, 2 COOP (PROOUT), +10 PAW based schemes


 Dipole corrections
   LMONO  =      F    monopole corrections only (constant potential shift)
   LDIPOL =      F    correct potential (dipole corrections)
   IDIPOL =      0    1-x, 2-y, 3-z, 4-all directions 
   EPSILON=  1.0000000 bulk dielectric constant

 Exchange correlation treatment:
   GGA     =    --    GGA type
   LEXCH   =     8    internal setting for exchange type
   VOSKOWN=      0    Vosko Wilk Nusair interpolation
   LHFCALC =     F    Hartree Fock is set to
   LHFONE  =     F    Hartree Fock one center treatment
   AEXX    =    0.0000 exact exchange contribution

 Linear response parameters
   LEPSILON=     F    determine dielectric tensor
   LRPA    =     F    only Hartree local field effects (RPA)
   LNABLA  =     F    use nabla operator in PAW spheres
   LVEL    =     F    velocity operator in full k-point grid
   LINTERFAST=   F  fast interpolation
   KINTER  =     0    interpolate to denser k-point grid
   CSHIFT  =0.1000    complex shift for real part using Kramers Kronig
   OMEGAMAX=  -1.0    maximum frequency
   DEG_THRESHOLD= 0.2000000E-02 threshold for treating states as degnerate
   RTIME   =   -0.100 relaxation time in fs
  (WPLASMAI=    0.000 imaginary part of plasma frequency in eV, 0.658/RTIME)
   DFIELD  = 0.0000000 0.0000000 0.0000000 field for delta impulse in time
 
 Orbital magnetization related:
   ORBITALMAG=     F  switch on orbital magnetization
   LCHIMAG   =     F  perturbation theory with respect to B field
   DQ        =  0.001000  dq finite difference perturbation B field
   LLRAUG    =     F  two centre corrections for induced B field



--------------------------------------------------------------------------------------------------------


 conjugate gradient relaxation of ions
 charge density and potential will be updated during run
 non-spin polarized calculation
 RMM-DIIS sequential band-by-band and
  variant of blocked Davidson during initial phase
 perform sub-space diagonalisation
    before iterative eigenvector-optimisation
 modified Broyden-mixing scheme, WC =      100.0
 initial mixing is a Kerker type mixing with AMIX =  0.4000 and BMIX =      1.0000
 Hartree-type preconditioning will be used
 using additional bands           10
 reciprocal scheme for non local part
 use partial core corrections
 calculate Harris-corrections to forces 
   (improved forces if not selfconsistent)
 use gradient corrections 
 use of overlap-Matrix (Vanderbilt PP)
 Methfessel and Paxton  Order N= 2 SIGMA  =   0.10


--------------------------------------------------------------------------------------------------------


  energy-cutoff  :      400.00
  volume of cell :      131.68
      direct lattice vectors                 reciprocal lattice vectors
     4.418435921  0.027679122  0.090712973     0.224434578  0.073877482  0.069508631
    -1.775881258  5.553825896 -0.168806523    -0.003223805  0.182109000  0.101457996
    -0.679814393 -3.027914509  5.413263773    -0.003861502  0.004440859  0.186730497

  length of vectors
     4.419453695  5.833286550  6.239698595     0.246292939  0.208489342  0.186823208


 
 k-points in units of 2pi/SCALE and weight: Automatic mesh                          
   0.00000000  0.00000000  0.00000000       0.004
   0.03206208  0.01055393  0.00992980       0.008
   0.06412417  0.02110785  0.01985961       0.008
   0.09618625  0.03166178  0.02978941       0.008
  -0.00053730  0.03035150  0.01690967       0.008
   0.03152478  0.04090543  0.02683947       0.008
   0.06358686  0.05145935  0.03676927       0.008
   0.09564895  0.06201328  0.04669908       0.008
  -0.09672355 -0.00131028 -0.01287975       0.008
  -0.06466147  0.00924365 -0.00294994       0.008
  -0.03259938  0.01979757  0.00697986       0.008
  -0.00107460  0.06070300  0.03381933       0.008
   0.03098748  0.07125693  0.04374914       0.008
   0.06304956  0.08181085  0.05367894       0.008
   0.09511165  0.09236478  0.06360875       0.008
  -0.09726085  0.02904122  0.00402992       0.008
  -0.06519877  0.03959515  0.01395972       0.008
  -0.03313668  0.05014907  0.02388953       0.008
  -0.00161190  0.09105450  0.05072900       0.004
   0.03045018  0.10160843  0.06065880       0.008
   0.06251226  0.11216235  0.07058861       0.008
   0.09457435  0.12271628  0.08051841       0.008
  -0.00064358  0.00074014  0.03112175       0.008
   0.03141850  0.01129407  0.04105155       0.008
   0.06348058  0.02184800  0.05098136       0.008
   0.09554266  0.03240192  0.06091116       0.008
  -0.09682983 -0.03092163  0.00133234       0.008
  -0.06476775 -0.02036771  0.01126214       0.008
  -0.03270567 -0.00981378  0.02119195       0.008
  -0.00118088  0.03109164  0.04803142       0.008
   0.03088120  0.04164557  0.05796122       0.008
   0.06294328  0.05219950  0.06789102       0.008
   0.09500536  0.06275342  0.07782083       0.008
  -0.09736713 -0.00057013  0.01824200       0.008
  -0.06530505  0.00998379  0.02817181       0.008
  -0.03324297  0.02053772  0.03810161       0.008
  -0.00171819  0.06144314  0.06494108       0.008
   0.03034390  0.07199707  0.07487089       0.008
   0.06240598  0.08255099  0.08480069       0.008
   0.09446806  0.09310492  0.09473049       0.008
  -0.09790443  0.02978137  0.03515167       0.008
  -0.06584235  0.04033529  0.04508147       0.008
  -0.03378027  0.05088922  0.05501128       0.008
  -0.00225549  0.09179464  0.08185075       0.008
   0.02980660  0.10234857  0.09178055       0.008
   0.06186868  0.11290249  0.10171036       0.008
   0.09393076  0.12345642  0.11164016       0.008
  -0.09844173  0.06013287  0.05206133       0.008
  -0.06637965  0.07068679  0.06199114       0.008
  -0.03431757  0.08124072  0.07192094       0.008
   0.00043102 -0.05996286 -0.00269758       0.008
   0.03249310 -0.04940893  0.00723222       0.008
   0.06455518 -0.03885500  0.01716203       0.008
   0.09661727 -0.02830108  0.02709183       0.008
  -0.09575523 -0.09162463 -0.03248700       0.008
  -0.06369315 -0.08107071 -0.02255719       0.008
  -0.03163106 -0.07051678 -0.01262739       0.008
  -0.00010628 -0.02961136  0.01421208       0.008
   0.03195580 -0.01905743  0.02414189       0.008
   0.06401788 -0.00850350  0.03407169       0.008
   0.09607996  0.00205042  0.04400150       0.008
  -0.09629253 -0.06127313 -0.01557733       0.008
  -0.06423045 -0.05071921 -0.00564753       0.008
  -0.03216837 -0.04016528  0.00428228       0.008
  -0.00128717  0.00148029  0.06224350       0.008
   0.03077492  0.01203421  0.07217330       0.008
   0.06283700  0.02258814  0.08210311       0.008
   0.09489908  0.03314206  0.09203291       0.008
  -0.09747341 -0.03018149  0.03245409       0.008
  -0.06541133 -0.01962757  0.04238389       0.008
  -0.03334925 -0.00907364  0.05231369       0.008
  -0.00182447  0.03183179  0.07915317       0.008
   0.03023761  0.04238571  0.08908297       0.008
   0.06229970  0.05293964  0.09901277       0.008
   0.09436178  0.06349356  0.10894258       0.008
  -0.09801072  0.00017001  0.04936375       0.008
  -0.06594863  0.01072393  0.05929356       0.008
  -0.03388655  0.02127786  0.06922336       0.008
  -0.00236177  0.06218329  0.09606283       0.008
   0.02970031  0.07273721  0.10599264       0.008
   0.06176240  0.08329114  0.11592244       0.008
   0.09382448  0.09384506  0.12585224       0.008
  -0.09854802  0.03052151  0.06627342       0.008
  -0.06648593  0.04107543  0.07620322       0.008
  -0.03442385  0.05162936  0.08613303       0.008
  -0.00289907  0.09253479  0.11297250       0.008
   0.02916301  0.10308871  0.12290230       0.008
   0.06122510  0.11364264  0.13283211       0.008
   0.09328718  0.12419656  0.14276191       0.008
  -0.09908532  0.06087301  0.08318308       0.008
  -0.06702323  0.07142693  0.09311289       0.008
  -0.03496115  0.08198086  0.10304269       0.008
  -0.00021257 -0.05922271  0.02842417       0.008
   0.03184952 -0.04866879  0.03835397       0.008
   0.06391160 -0.03811486  0.04828378       0.008
   0.09597368 -0.02756094  0.05821358       0.008
  -0.09639881 -0.09088449 -0.00136525       0.008
  -0.06433673 -0.08033057  0.00856456       0.008
  -0.03227465 -0.06977664  0.01849436       0.008
  -0.00074987 -0.02887121  0.04533383       0.008
   0.03131222 -0.01831729  0.05526364       0.008
   0.06337430 -0.00776336  0.06519344       0.008
   0.09543638  0.00279056  0.07512325       0.008
  -0.09693611 -0.06053299  0.01554442       0.008
  -0.06487403 -0.04997907  0.02547422       0.008
  -0.03281195 -0.03942514  0.03540403       0.008
  -0.00193075  0.00222043  0.09336525       0.004
   0.03013133  0.01277436  0.10329505       0.008
   0.06219341  0.02332828  0.11322486       0.008
   0.09425550  0.03388221  0.12315466       0.008
  -0.00246805  0.03257193  0.11027491       0.008
   0.02959403  0.04312586  0.12020472       0.008
   0.06165611  0.05367978  0.13013452       0.008
   0.09371820  0.06423371  0.14006433       0.008
  -0.09865430  0.00091015  0.08048550       0.008
  -0.06659222  0.01146408  0.09041531       0.008
  -0.03453013  0.02201800  0.10034511       0.008
  -0.00300535  0.06292343  0.12718458       0.008
   0.02905673  0.07347736  0.13711439       0.008
   0.06111881  0.08403128  0.14704419       0.008
   0.09318090  0.09458521  0.15697399       0.008
  -0.09919160  0.03126165  0.09739517       0.008
  -0.06712952  0.04181558  0.10732497       0.008
  -0.03506743  0.05236950  0.11725478       0.008
  -0.00354265  0.09327493  0.14409425       0.004
   0.02851943  0.10382886  0.15402405       0.008
   0.06058151  0.11438278  0.16395386       0.008
   0.09264359  0.12493671  0.17388366       0.008
 
 k-points in reciprocal lattice and weights: Automatic mesh                          
   0.00000000  0.00000000  0.00000000       0.004
   0.14285714  0.00000000  0.00000000       0.008
   0.28571429  0.00000000  0.00000000       0.008
   0.42857143  0.00000000  0.00000000       0.008
   0.00000000  0.16666667  0.00000000       0.008
   0.14285714  0.16666667  0.00000000       0.008
   0.28571429  0.16666667  0.00000000       0.008
   0.42857143  0.16666667  0.00000000       0.008
  -0.42857143  0.16666667  0.00000000       0.008
  -0.28571429  0.16666667  0.00000000       0.008
  -0.14285714  0.16666667  0.00000000       0.008
   0.00000000  0.33333333  0.00000000       0.008
   0.14285714  0.33333333  0.00000000       0.008
   0.28571429  0.33333333  0.00000000       0.008
   0.42857143  0.33333333  0.00000000       0.008
  -0.42857143  0.33333333  0.00000000       0.008
  -0.28571429  0.33333333  0.00000000       0.008
  -0.14285714  0.33333333  0.00000000       0.008
   0.00000000  0.50000000  0.00000000       0.004
   0.14285714  0.50000000  0.00000000       0.008
   0.28571429  0.50000000  0.00000000       0.008
   0.42857143  0.50000000  0.00000000       0.008
   0.00000000  0.00000000  0.16666667       0.008
   0.14285714  0.00000000  0.16666667       0.008
   0.28571429  0.00000000  0.16666667       0.008
   0.42857143  0.00000000  0.16666667       0.008
  -0.42857143  0.00000000  0.16666667       0.008
  -0.28571429  0.00000000  0.16666667       0.008
  -0.14285714  0.00000000  0.16666667       0.008
   0.00000000  0.16666667  0.16666667       0.008
   0.14285714  0.16666667  0.16666667       0.008
   0.28571429  0.16666667  0.16666667       0.008
   0.42857143  0.16666667  0.16666667       0.008
  -0.42857143  0.16666667  0.16666667       0.008
  -0.28571429  0.16666667  0.16666667       0.008
  -0.14285714  0.16666667  0.16666667       0.008
   0.00000000  0.33333333  0.16666667       0.008
   0.14285714  0.33333333  0.16666667       0.008
   0.28571429  0.33333333  0.16666667       0.008
   0.42857143  0.33333333  0.16666667       0.008
  -0.42857143  0.33333333  0.16666667       0.008
  -0.28571429  0.33333333  0.16666667       0.008
  -0.14285714  0.33333333  0.16666667       0.008
   0.00000000  0.50000000  0.16666667       0.008
   0.14285714  0.50000000  0.16666667       0.008
   0.28571429  0.50000000  0.16666667       0.008
   0.42857143  0.50000000  0.16666667       0.008
  -0.42857143  0.50000000  0.16666667       0.008
  -0.28571429  0.50000000  0.16666667       0.008
  -0.14285714  0.50000000  0.16666667       0.008
   0.00000000 -0.33333333  0.16666667       0.008
   0.14285714 -0.33333333  0.16666667       0.008
   0.28571429 -0.33333333  0.16666667       0.008
   0.42857143 -0.33333333  0.16666667       0.008
  -0.42857143 -0.33333333  0.16666667       0.008
  -0.28571429 -0.33333333  0.16666667       0.008
  -0.14285714 -0.33333333  0.16666667       0.008
   0.00000000 -0.16666667  0.16666667       0.008
   0.14285714 -0.16666667  0.16666667       0.008
   0.28571429 -0.16666667  0.16666667       0.008
   0.42857143 -0.16666667  0.16666667       0.008
  -0.42857143 -0.16666667  0.16666667       0.008
  -0.28571429 -0.16666667  0.16666667       0.008
  -0.14285714 -0.16666667  0.16666667       0.008
   0.00000000  0.00000000  0.33333333       0.008
   0.14285714  0.00000000  0.33333333       0.008
   0.28571429  0.00000000  0.33333333       0.008
   0.42857143  0.00000000  0.33333333       0.008
  -0.42857143  0.00000000  0.33333333       0.008
  -0.28571429  0.00000000  0.33333333       0.008
  -0.14285714  0.00000000  0.33333333       0.008
   0.00000000  0.16666667  0.33333333       0.008
   0.14285714  0.16666667  0.33333333       0.008
   0.28571429  0.16666667  0.33333333       0.008
   0.42857143  0.16666667  0.33333333       0.008
  -0.42857143  0.16666667  0.33333333       0.008
  -0.28571429  0.16666667  0.33333333       0.008
  -0.14285714  0.16666667  0.33333333       0.008
   0.00000000  0.33333333  0.33333333       0.008
   0.14285714  0.33333333  0.33333333       0.008
   0.28571429  0.33333333  0.33333333       0.008
   0.42857143  0.33333333  0.33333333       0.008
  -0.42857143  0.33333333  0.33333333       0.008
  -0.28571429  0.33333333  0.33333333       0.008
  -0.14285714  0.33333333  0.33333333       0.008
   0.00000000  0.50000000  0.33333333       0.008
   0.14285714  0.50000000  0.33333333       0.008
   0.28571429  0.50000000  0.33333333       0.008
   0.42857143  0.50000000  0.33333333       0.008
  -0.42857143  0.50000000  0.33333333       0.008
  -0.28571429  0.50000000  0.33333333       0.008
  -0.14285714  0.50000000  0.33333333       0.008
   0.00000000 -0.33333333  0.33333333       0.008
   0.14285714 -0.33333333  0.33333333       0.008
   0.28571429 -0.33333333  0.33333333       0.008
   0.42857143 -0.33333333  0.33333333       0.008
  -0.42857143 -0.33333333  0.33333333       0.008
  -0.28571429 -0.33333333  0.33333333       0.008
  -0.14285714 -0.33333333  0.33333333       0.008
   0.00000000 -0.16666667  0.33333333       0.008
   0.14285714 -0.16666667  0.33333333       0.008
   0.28571429 -0.16666667  0.33333333       0.008
   0.42857143 -0.16666667  0.33333333       0.008
  -0.42857143 -0.16666667  0.33333333       0.008
  -0.28571429 -0.16666667  0.33333333       0.008
  -0.14285714 -0.16666667  0.33333333       0.008
   0.00000000  0.00000000  0.50000000       0.004
   0.14285714  0.00000000  0.50000000       0.008
   0.28571429  0.00000000  0.50000000       0.008
   0.42857143  0.00000000  0.50000000       0.008
   0.00000000  0.16666667  0.50000000       0.008
   0.14285714  0.16666667  0.50000000       0.008
   0.28571429  0.16666667  0.50000000       0.008
   0.42857143  0.16666667  0.50000000       0.008
  -0.42857143  0.16666667  0.50000000       0.008
  -0.28571429  0.16666667  0.50000000       0.008
  -0.14285714  0.16666667  0.50000000       0.008
   0.00000000  0.33333333  0.50000000       0.008
   0.14285714  0.33333333  0.50000000       0.008
   0.28571429  0.33333333  0.50000000       0.008
   0.42857143  0.33333333  0.50000000       0.008
  -0.42857143  0.33333333  0.50000000       0.008
  -0.28571429  0.33333333  0.50000000       0.008
  -0.14285714  0.33333333  0.50000000       0.008
   0.00000000  0.50000000  0.50000000       0.004
   0.14285714  0.50000000  0.50000000       0.008
   0.28571429  0.50000000  0.50000000       0.008
   0.42857143  0.50000000  0.50000000       0.008
 
 position of ions in fractional coordinates (direct lattice) 
   0.99983605  0.90384909  0.83938552
   0.72781847  0.96186299  0.82534827
   0.16754100  0.55601349  0.50648126
   0.20122201  0.94777443  0.03181418
   0.33571174  0.37160672  0.59140742
   0.19469245  0.01560584  0.51606486
   0.64023977  0.40097010  0.53667590
   0.04981457  0.56354175  0.13102488
   0.58977299  0.10830304  0.46496569
   0.13218466  0.44311618  0.26189958
   0.29580309  0.87748310  0.20681433
   0.69199844  0.14579105  0.75340655
   0.76303714  0.41213039  0.94122286
   0.10330663  0.81941982  0.60836171
 
 position of ions in cartesian coordinates  (Angst):
   2.24195650  2.50590746  4.48193770
   0.94658119  2.86308097  4.37148173
  -0.59145801  1.55905757  2.66305608
  -0.81567603  5.17301319  0.03048149
   0.42134413  0.28240014  3.16916812
   0.48169369 -1.47053925  2.80862196
   1.75194308  0.61963069  2.89555987
  -0.86975336  2.73445945  0.61866153
   2.09745044 -0.79005574  2.55219972
  -0.38091539  1.67163935  1.35492148
  -0.39191415  4.25535983  0.99824881
   2.28646654 -1.45239860  4.11655115
   1.99967920 -0.53992171  5.09473469
  -1.41231161  2.71170719  3.16427026
 


--------------------------------------------------------------------------------------------------------


 k-point  1 :   0.0000 0.0000 0.0000  plane waves:    2391
 k-point  2 :   0.1429 0.0000 0.0000  plane waves:    2393
 k-point  3 :   0.2857 0.0000 0.0000  plane waves:    2395
 k-point  4 :   0.4286 0.0000 0.0000  plane waves:    2411
 k-point  5 :   0.0000 0.1667 0.0000  plane waves:    2381
 k-point  6 :   0.1429 0.1667 0.0000  plane waves:    2394
 k-point  7 :   0.2857 0.1667 0.0000  plane waves:    2392
 k-point  8 :   0.4286 0.1667 0.0000  plane waves:    2400
 k-point  9 :  -0.4286 0.1667 0.0000  plane waves:    2394
 k-point 10 :  -0.2857 0.1667 0.0000  plane waves:    2390
 k-point 11 :  -0.1429 0.1667 0.0000  plane waves:    2384
 k-point 12 :   0.0000 0.3333 0.0000  plane waves:    2383
 k-point 13 :   0.1429 0.3333 0.0000  plane waves:    2393
 k-point 14 :   0.2857 0.3333 0.0000  plane waves:    2398
 k-point 15 :   0.4286 0.3333 0.0000  plane waves:    2398
 k-point 16 :  -0.4286 0.3333 0.0000  plane waves:    2397
 k-point 17 :  -0.2857 0.3333 0.0000  plane waves:    2391
 k-point 18 :  -0.1429 0.3333 0.0000  plane waves:    2378
 k-point 19 :   0.0000 0.5000 0.0000  plane waves:    2378
 k-point 20 :   0.1429 0.5000 0.0000  plane waves:    2384
 k-point 21 :   0.2857 0.5000 0.0000  plane waves:    2386
 k-point 22 :   0.4286 0.5000 0.0000  plane waves:    2386
 k-point 23 :   0.0000 0.0000 0.1667  plane waves:    2389
 k-point 24 :   0.1429 0.0000 0.1667  plane waves:    2391
 k-point 25 :   0.2857 0.0000 0.1667  plane waves:    2390
 k-point 26 :   0.4286 0.0000 0.1667  plane waves:    2408
 k-point 27 :  -0.4286 0.0000 0.1667  plane waves:    2402
 k-point 28 :  -0.2857 0.0000 0.1667  plane waves:    2380
 k-point 29 :  -0.1429 0.0000 0.1667  plane waves:    2395
 k-point 30 :   0.0000 0.1667 0.1667  plane waves:    2393
 k-point 31 :   0.1429 0.1667 0.1667  plane waves:    2407
 k-point 32 :   0.2857 0.1667 0.1667  plane waves:    2399
 k-point 33 :   0.4286 0.1667 0.1667  plane waves:    2402
 k-point 34 :  -0.4286 0.1667 0.1667  plane waves:    2395
 k-point 35 :  -0.2857 0.1667 0.1667  plane waves:    2387
 k-point 36 :  -0.1429 0.1667 0.1667  plane waves:    2377
 k-point 37 :   0.0000 0.3333 0.1667  plane waves:    2392
 k-point 38 :   0.1429 0.3333 0.1667  plane waves:    2390
 k-point 39 :   0.2857 0.3333 0.1667  plane waves:    2385
 k-point 40 :   0.4286 0.3333 0.1667  plane waves:    2391
 k-point 41 :  -0.4286 0.3333 0.1667  plane waves:    2388
 k-point 42 :  -0.2857 0.3333 0.1667  plane waves:    2394
 k-point 43 :  -0.1429 0.3333 0.1667  plane waves:    2376
 k-point 44 :   0.0000 0.5000 0.1667  plane waves:    2383
 k-point 45 :   0.1429 0.5000 0.1667  plane waves:    2374
 k-point 46 :   0.2857 0.5000 0.1667  plane waves:    2389
 k-point 47 :   0.4286 0.5000 0.1667  plane waves:    2379
 k-point 48 :  -0.4286 0.5000 0.1667  plane waves:    2393
 k-point 49 :  -0.2857 0.5000 0.1667  plane waves:    2386
[...]
     16      -3.7536      2.00000
     17      -3.3470      2.00000
     18      -2.7258      2.00000
     19      -2.5400      2.00000
     20      -2.2673      2.00000
     21      -1.6871      2.00000
     22      -1.5820      2.00000
     23      -1.2412      2.00000
     24      -0.9650      2.00000
     25      -0.7042      2.00000
     26      -0.0792      2.00000
     27       0.2568      2.00000
     28       0.4396      2.00000
     29       1.8307      2.00000
     30       2.8491      0.87530
     31       4.1500      0.00000
     32       5.1301      0.00000
     33       6.7755      0.00000
     34       7.0253      0.00000
     35       7.6200      0.00000
     36       8.1964      0.00000
     37       9.0168      0.00000
     38       9.2447      0.00000
     39      10.0798      0.00000
     40      10.7883      0.00000

 k-point   117 :      -0.1429    0.1667    0.5000
  band No.  band energies     occupation 
      1     -20.3073      2.00000
      2     -19.0247      2.00000
      3     -18.2254      2.00000
      4     -18.1205      2.00000
      5     -17.7879      2.00000
      6     -17.5182      2.00000
      7      -8.9889      2.00000
      8      -7.9895      2.00000
      9      -7.4401      2.00000
     10      -7.0555      2.00000
     11      -6.7708      2.00000
     12      -5.9042      2.00000
     13      -5.6361      2.00000
     14      -5.1812      2.00000
     15      -4.4728      2.00000
     16      -3.6163      2.00000
     17      -3.2773      2.00000
     18      -2.9427      2.00000
     19      -2.4247      2.00000
     20      -2.2046      2.00000
     21      -1.9347      2.00000
     22      -1.6044      2.00000
     23      -1.2519      2.00000
     24      -1.0556      2.00000
     25      -0.7477      2.00000
     26      -0.1185      2.00000
     27       0.2010      2.00000
     28       0.6939      2.00000
     29       1.8651      2.00000
     30       2.6449      1.99022
     31       3.5163      0.00000
     32       5.1323      0.00000
     33       6.8773      0.00000
     34       7.0929      0.00000
     35       7.6358      0.00000
     36       8.2318      0.00000
     37       9.0192      0.00000
     38       9.4538      0.00000
     39       9.8123      0.00000
     40      10.6552      0.00000

 k-point   118 :       0.0000    0.3333    0.5000
  band No.  band energies     occupation 
      1     -20.3551      2.00000
      2     -18.8405      2.00000
      3     -18.3829      2.00000
      4     -18.1819      2.00000
      5     -17.7645      2.00000
      6     -17.4624      2.00000
      7      -8.6804      2.00000
      8      -8.1072      2.00000
      9      -7.5502      2.00000
     10      -7.2108      2.00000
     11      -6.7917      2.00000
     12      -6.0838      2.00000
     13      -5.5632      2.00000
     14      -5.1877      2.00000
     15      -4.0636      2.00000
     16      -3.7126      2.00000
     17      -3.3753      2.00000
     18      -2.7064      2.00000
     19      -2.3953      2.00000
     20      -2.1596      2.00000
     21      -1.9588      2.00000
     22      -1.7263      2.00000
     23      -1.4440      2.00000
     24      -0.8702      2.00000
     25      -0.7833      2.00000
     26      -0.2123      2.00000
     27       0.5620      2.00000
     28       0.9051      2.00000
     29       1.6106      2.00000
     30       2.1148      2.00000
     31       3.0770      0.00643
     32       5.8533      0.00000
     33       6.9256      0.00000
     34       7.0172      0.00000
     35       7.4351      0.00000
     36       7.9333      0.00000
     37       8.6278      0.00000
     38       9.4335      0.00000
     39      10.1818      0.00000
     40      10.3770      0.00000

 k-point   119 :       0.1429    0.3333    0.5000
  band No.  band energies     occupation 
      1     -20.3310      2.00000
      2     -18.8308      2.00000
      3     -18.4243      2.00000
      4     -18.1526      2.00000
      5     -17.7774      2.00000
      6     -17.4857      2.00000
      7      -8.5053      2.00000
      8      -8.0974      2.00000
      9      -7.6724      2.00000
     10      -7.2976      2.00000
     11      -6.7479      2.00000
     12      -6.2281      2.00000
     13      -5.5626      2.00000
     14      -5.1507      2.00000
     15      -4.0802      2.00000
     16      -3.8112      2.00000
     17      -3.2869      2.00000
     18      -2.8759      2.00000
     19      -2.4197      2.00000
     20      -2.0792      2.00000
     21      -1.8189      2.00000
     22      -1.6270      2.00000
     23      -1.4169      2.00000
     24      -0.8522      2.00000
     25      -0.7699      2.00000
     26      -0.1717      2.00000
     27       0.3520      2.00000
     28       0.9211      2.00000
     29       1.5020      2.00000
     30       2.5577      1.99887
     31       3.1278      0.00118
     32       5.8115      0.00000
     33       6.7825      0.00000
     34       7.1984      0.00000
     35       7.3479      0.00000
     36       7.8614      0.00000
     37       8.6266      0.00000
     38       9.3394      0.00000
     39      10.1404      0.00000
     40      10.5104      0.00000

 k-point   120 :       0.2857    0.3333    0.5000
  band No.  band energies     occupation 
      1     -20.2665      2.00000
      2     -18.8750      2.00000
      3     -18.4503      2.00000
      4     -18.0881      2.00000
      5     -17.8290      2.00000
      6     -17.5162      2.00000
      7      -8.4932      2.00000
      8      -8.1155      2.00000
      9      -7.6863      2.00000
     10      -7.2542      2.00000
     11      -6.7007      2.00000
     12      -6.2293      2.00000
     13      -5.6394      2.00000
     14      -5.1226      2.00000
     15      -4.1984      2.00000
     16      -3.9746      2.00000
     17      -3.4038      2.00000
     18      -2.8110      2.00000
     19      -2.4132      2.00000
     20      -2.1839      2.00000
     21      -1.7621      2.00000
     22      -1.5451      2.00000
     23      -1.1417      2.00000
     24      -0.8971      2.00000
     25      -0.7361      2.00000
     26      -0.2259      2.00000
     27       0.1236      2.00000
     28       0.9473      2.00000
     29       1.5609      2.00000
     30       2.7403      2.10014
     31       3.8458      0.00000
     32       5.6702      0.00000
     33       6.5168      0.00000
     34       7.2592      0.00000
     35       7.4314      0.00000
     36       7.9694      0.00000
     37       8.7449      0.00000
     38       9.5079      0.00000
     39      10.0802      0.00000
     40      10.5826      0.00000

 k-point   121 :       0.4286    0.3333    0.5000
  band No.  band energies     occupation 
      1     -20.2060      2.00000
      2     -18.9377      2.00000
      3     -18.4549      2.00000
      4     -18.0152      2.00000
      5     -17.8939      2.00000
      6     -17.5305      2.00000
      7      -8.6976      2.00000
      8      -8.0363      2.00000
      9      -7.6533      2.00000
     10      -7.0969      2.00000
     11      -6.6896      2.00000
     12      -6.1681      2.00000
     13      -5.6247      2.00000
     14      -5.1491      2.00000
     15      -4.4558      2.00000
     16      -3.9710      2.00000
     17      -3.4198      2.00000
     18      -2.7627      2.00000
     19      -2.4403      2.00000
     20      -2.1990      2.00000
     21      -1.9262      2.00000
     22      -1.4747      2.00000
     23      -1.2545      2.00000
     24      -0.8355      2.00000
     25      -0.5671      2.00000
     26      -0.3313      2.00000
     27       0.1593      2.00000
     28       0.8149      2.00000
     29       1.7612      2.00000
     30       2.7444      2.10267
     31       4.6881      0.00000
     32       5.6184      0.00000
     33       6.3431      0.00000
     34       7.0745      0.00000
     35       7.5386      0.00000
     36       7.9584      0.00000
     37       8.7790      0.00000
     38       9.7664      0.00000
     39      10.1429      0.00000
     40      10.6924      0.00000

 k-point   122 :      -0.4286    0.3333    0.5000
  band No.  band energies     occupation 
      1     -20.2019      2.00000
      2     -18.9626      2.00000
      3     -18.4309      2.00000
      4     -18.0349      2.00000
      5     -17.8863      2.00000
      6     -17.5175      2.00000
      7      -8.8700      2.00000
      8      -8.0006      2.00000
      9      -7.5889      2.00000
     10      -6.9029      2.00000
     11      -6.7855      2.00000
     12      -6.1283      2.00000
     13      -5.5192      2.00000
     14      -5.1503      2.00000
     15      -4.6735      2.00000
     16      -3.8682      2.00000
     17      -3.2590      2.00000
     18      -2.8334      2.00000
     19      -2.4709      2.00000
     20      -2.2851      2.00000
     21      -1.9407      2.00000
     22      -1.4438      2.00000
     23      -1.3597      2.00000
     24      -0.8665      2.00000
     25      -0.6424      2.00000
     26      -0.2953      2.00000
     27       0.1926      2.00000
     28       0.6519      2.00000
     29       1.9254      2.00000
     30       2.7703      2.05631
     31       4.7680      0.00000
     32       5.6270      0.00000
     33       6.3819      0.00000
     34       6.9173      0.00000
     35       7.5690      0.00000
     36       8.0823      0.00000
     37       8.9668      0.00000
     38       9.8295      0.00000
     39      10.0631      0.00000
     40      10.8015      0.00000

 k-point   123 :      -0.2857    0.3333    0.5000
  band No.  band energies     occupation 
      1     -20.2577      2.00000
      2     -18.9359      2.00000
      3     -18.3834      2.00000
      4     -18.1139      2.00000
      5     -17.8349      2.00000
      6     -17.4872      2.00000
      7      -8.9229      2.00000
      8      -8.0344      2.00000
      9      -7.5034      2.00000
     10      -6.9325      2.00000
     11      -6.8001      2.00000
     12      -6.0419      2.00000
     13      -5.5588      2.00000
     14      -5.0411      2.00000
     15      -4.7002      2.00000
     16      -3.7707      2.00000
     17      -3.1669      2.00000
     18      -2.8518      2.00000
     19      -2.5211      2.00000
     20      -2.2228      2.00000
     21      -1.8329      2.00000
     22      -1.6733      2.00000
     23      -1.2173      2.00000
     24      -1.0153      2.00000
     25      -0.7593      2.00000
     26      -0.2306      2.00000
     27       0.1728      2.00000
     28       0.5958      2.00000
     29       1.9562      2.00000
     30       2.7523      2.10146
     31       3.9616      0.00000
     32       5.5935      0.00000
     33       6.6636      0.00000
     34       7.0417      0.00000
     35       7.5789      0.00000
     36       8.2418      0.00000
     37       9.1383      0.00000
     38       9.7400      0.00000
     39       9.9947      0.00000
     40      10.6600      0.00000

 k-point   124 :      -0.1429    0.3333    0.5000
  band No.  band energies     occupation 
      1     -20.3248      2.00000
      2     -18.8864      2.00000
      3     -18.3563      2.00000
      4     -18.1728      2.00000
      5     -17.7905      2.00000
      6     -17.4629      2.00000
      7      -8.8484      2.00000
      8      -8.0872      2.00000
      9      -7.4795      2.00000
     10      -7.0716      2.00000
     11      -6.8033      2.00000
     12      -5.9565      2.00000
     13      -5.6040      2.00000
     14      -5.1620      2.00000
     15      -4.3395      2.00000
     16      -3.6960      2.00000
     17      -3.3383      2.00000
     18      -2.7892      2.00000
     19      -2.2841      2.00000
     20      -2.1998      2.00000
     21      -1.9872      2.00000
     22      -1.7351      2.00000
     23      -1.2575      2.00000
     24      -1.0616      2.00000
     25      -0.7765      2.00000
     26      -0.1789      2.00000
     27       0.2552      2.00000
     28       0.7923      2.00000
     29       1.8348      2.00000
     30       2.4416      2.00000
     31       3.2427      0.00000
     32       5.7266      0.00000
     33       6.8647      0.00000
     34       6.9901      0.00000
     35       7.5478      0.00000
     36       8.1785      0.00000
     37       8.9194      0.00000
     38       9.6503      0.00000
     39      10.1300      0.00000
     40      10.3924      0.00000

 k-point   125 :       0.0000    0.5000    0.5000
  band No.  band energies     occupation 
      1     -20.3633      2.00000
      2     -18.6989      2.00000
      3     -18.5157      2.00000
      4     -18.2089      2.00000
      5     -17.7646      2.00000
      6     -17.4395      2.00000
      7      -8.5296      2.00000
      8      -8.1290      2.00000
      9      -7.6632      2.00000
     10      -7.2295      2.00000
     11      -6.8221      2.00000
     12      -6.1634      2.00000
     13      -5.5032      2.00000
     14      -5.1515      2.00000
     15      -4.0048      2.00000
     16      -3.8006      2.00000
     17      -3.3470      2.00000
     18      -2.6510      2.00000
     19      -2.4492      2.00000
     20      -2.1254      2.00000
     21      -1.8993      2.00000
     22      -1.6896      2.00000
     23      -1.4527      2.00000
     24      -0.8698      2.00000
     25      -0.7961      2.00000
     26      -0.2414      2.00000
     27       0.6470      2.00000
     28       0.9405      2.00000
     29       1.4361      2.00000
     30       2.0518      2.00000
     31       2.9939     -0.02089
     32       6.2275      0.00000
     33       6.8538      0.00000
     34       7.0434      0.00000
     35       7.3910      0.00000
     36       7.8206      0.00000
     37       8.3603      0.00000
     38       9.5813      0.00000
     39      10.1712      0.00000
     40      10.6535      0.00000

 k-point   126 :       0.1429    0.5000    0.5000
  band No.  band energies     occupation 
      1     -20.3358      2.00000
      2     -18.7356      2.00000
      3     -18.5125      2.00000
      4     -18.1813      2.00000
      5     -17.7864      2.00000
      6     -17.4498      2.00000
      7      -8.5979      2.00000
      8      -8.1491      2.00000
      9      -7.6083      2.00000
     10      -7.1804      2.00000
     11      -6.7906      2.00000
     12      -6.1271      2.00000
     13      -5.5258      2.00000
     14      -5.1636      2.00000
     15      -4.1186      2.00000
     16      -3.8519      2.00000
     17      -3.4067      2.00000
     18      -2.5719      2.00000
     19      -2.4454      2.00000
     20      -2.0851      2.00000
     21      -1.9614      2.00000
     22      -1.7310      2.00000
     23      -1.2701      2.00000
     24      -0.9388      2.00000
     25      -0.8239      2.00000
     26      -0.2100      2.00000
     27       0.2803      2.00000
     28       0.9701      2.00000
     29       1.6067      2.00000
     30       2.4053      2.00000
     31       3.0936      0.00411
     32       6.0765      0.00000
     33       6.8089      0.00000
     34       7.0408      0.00000
     35       7.4510      0.00000
     36       7.9505      0.00000
     37       8.5835      0.00000
     38       9.5826      0.00000
     39      10.3189      0.00000
     40      10.6967      0.00000

 k-point   127 :       0.2857    0.5000    0.5000
  band No.  band energies     occupation 
      1     -20.2695      2.00000
      2     -18.8082      2.00000
      3     -18.5212      2.00000
      4     -18.1110      2.00000
      5     -17.8384      2.00000
      6     -17.4725      2.00000
      7      -8.7619      2.00000
      8      -8.1002      2.00000
      9      -7.5721      2.00000
     10      -7.0593      2.00000
     11      -6.7170      2.00000
     12      -6.0935      2.00000
     13      -5.5463      2.00000
     14      -5.1672      2.00000
     15      -4.3992      2.00000
     16      -3.9187      2.00000
     17      -3.3591      2.00000
     18      -2.6836      2.00000
     19      -2.3210      2.00000
     20      -2.2165      2.00000
     21      -1.9505      2.00000
     22      -1.7160      2.00000
     23      -1.2100      2.00000
     24      -0.9492      2.00000
     25      -0.7365      2.00000
     26      -0.3185      2.00000
     27       0.1364      2.00000
     28       0.8248      2.00000
     29       1.8360      2.00000
     30       2.6950      2.02454
     31       3.8102      0.00000
     32       5.9066      0.00000
     33       6.5551      0.00000
     34       7.0503      0.00000
     35       7.5552      0.00000
     36       8.1195      0.00000
     37       8.8823      0.00000
     38       9.6759      0.00000
     39      10.3043      0.00000
     40      10.6886      0.00000

 k-point   128 :       0.4286    0.5000    0.5000
  band No.  band energies     occupation 
      1     -20.2109      2.00000
      2     -18.8669      2.00000
      3     -18.5356      2.00000
      4     -18.0356      2.00000
      5     -17.8963      2.00000
      6     -17.4910      2.00000
      7      -8.8824      2.00000
      8      -8.0268      2.00000
      9      -7.5934      2.00000
     10      -6.8856      2.00000
     11      -6.7132      2.00000
     12      -6.1511      2.00000
     13      -5.4921      2.00000
     14      -5.1892      2.00000
     15      -4.5782      2.00000
     16      -3.9147      2.00000
     17      -3.2152      2.00000
     18      -2.8394      2.00000
     19      -2.5110      2.00000
     20      -2.1684      2.00000
     21      -2.0091      2.00000
     22      -1.6212      2.00000
     23      -1.3667      2.00000
     24      -0.8219      2.00000
     25      -0.6779      2.00000
     26      -0.3760      2.00000
     27       0.1841      2.00000
     28       0.7304      2.00000
     29       1.9821      2.00000
     30       2.7466      2.10321
     31       4.6995      0.00000
     32       5.9250      0.00000
     33       6.2890      0.00000
     34       6.9280      0.00000
     35       7.4785      0.00000
     36       8.0216      0.00000
     37       8.9900      0.00000
     38       9.8394      0.00000
     39      10.4725      0.00000
     40      10.7133      0.00000


--------------------------------------------------------------------------------------------------------


 soft charge-density along one line, spin component           1
         0         1         2         3         4         5         6         7         8         9
 total charge-density along one line
 
 pseudopotential strength for first ion, spin component:           1
  6.547   9.977   0.001  -0.004   0.001   0.002  -0.006   0.002
  9.977  15.198   0.002  -0.006   0.002   0.003  -0.010   0.004
  0.001   0.002  -2.227   0.001   0.002  -3.799   0.004   0.004
 -0.004  -0.006   0.001  -2.231  -0.002   0.004  -3.809  -0.005
  0.001   0.002   0.002  -0.002  -2.233   0.004  -0.005  -3.813
  0.002   0.003  -3.799   0.004   0.004  -6.281   0.008   0.010
 -0.006  -0.010   0.004  -3.809  -0.005   0.008  -6.303  -0.012
  0.002   0.004   0.004  -0.005  -3.813   0.010  -0.012  -6.312
 total augmentation occupancy for first ion, spin component:           1
  4.598  -1.464   0.157   0.611  -0.150  -0.065  -0.216   0.050
 -1.464   0.508  -0.071  -0.214   0.040   0.026   0.076  -0.017
  0.157  -0.071   2.164  -0.970  -1.017  -0.566   0.337   0.345
  0.611  -0.214  -0.970   4.928   0.740   0.340  -1.584  -0.263
 -0.150   0.040  -1.017   0.740   5.564   0.348  -0.263  -1.811
 -0.065   0.026  -0.566   0.340   0.348   0.160  -0.122  -0.124
 -0.216   0.076   0.337  -1.584  -0.263  -0.122   0.528   0.096
  0.050  -0.017   0.345  -0.263  -1.811  -0.124   0.096   0.610


------------------------ aborting loop because EDIFF is reached ----------------------------------------


    CHARGE:  cpu time    0.3633: real time    0.3651
    FORLOC:  cpu time    0.0190: real time    0.0194
